# vtk DataFile Version 3.0
biaxial order parameter field
ASCII
DATASET STRUCTURED_GRID
DIMENSIONS      96      96       1
POINTS        9216  float
  0.500000000      0.500000000      0.500000000    
   1.50000000      0.500000000      0.500000000    
   2.50000000      0.500000000      0.500000000    
   3.50000000      0.500000000      0.500000000    
   4.50000000      0.500000000      0.500000000    
   5.50000000      0.500000000      0.500000000    
   6.50000000      0.500000000      0.500000000    
   7.50000000      0.500000000      0.500000000    
   8.50000000      0.500000000      0.500000000    
   9.50000000      0.500000000      0.500000000    
   10.5000000      0.500000000      0.500000000    
   11.5000000      0.500000000      0.500000000    
   12.5000000      0.500000000      0.500000000    
   13.5000000      0.500000000      0.500000000    
   14.5000000      0.500000000      0.500000000    
   15.5000000      0.500000000      0.500000000    
   16.5000000      0.500000000      0.500000000    
   17.5000000      0.500000000      0.500000000    
   18.5000000      0.500000000      0.500000000    
   19.5000000      0.500000000      0.500000000    
   20.5000000      0.500000000      0.500000000    
   21.5000000      0.500000000      0.500000000    
   22.5000000      0.500000000      0.500000000    
   23.5000000      0.500000000      0.500000000    
   24.5000000      0.500000000      0.500000000    
   25.5000000      0.500000000      0.500000000    
   26.5000000      0.500000000      0.500000000    
   27.5000000      0.500000000      0.500000000    
   28.5000000      0.500000000      0.500000000    
   29.5000000      0.500000000      0.500000000    
   30.5000000      0.500000000      0.500000000    
   31.5000000      0.500000000      0.500000000    
   32.5000000      0.500000000      0.500000000    
   33.5000000      0.500000000      0.500000000    
   34.5000000      0.500000000      0.500000000    
   35.5000000      0.500000000      0.500000000    
   36.5000000      0.500000000      0.500000000    
   37.5000000      0.500000000      0.500000000    
   38.5000000      0.500000000      0.500000000    
   39.5000000      0.500000000      0.500000000    
   40.5000000      0.500000000      0.500000000    
   41.5000000      0.500000000      0.500000000    
   42.5000000      0.500000000      0.500000000    
   43.5000000      0.500000000      0.500000000    
   44.5000000      0.500000000      0.500000000    
   45.5000000      0.500000000      0.500000000    
   46.5000000      0.500000000      0.500000000    
   47.5000000      0.500000000      0.500000000    
   48.5000000      0.500000000      0.500000000    
   49.5000000      0.500000000      0.500000000    
   50.5000000      0.500000000      0.500000000    
   51.5000000      0.500000000      0.500000000    
   52.5000000      0.500000000      0.500000000    
   53.5000000      0.500000000      0.500000000    
   54.5000000      0.500000000      0.500000000    
   55.5000000      0.500000000      0.500000000    
   56.5000000      0.500000000      0.500000000    
   57.5000000      0.500000000      0.500000000    
   58.5000000      0.500000000      0.500000000    
   59.5000000      0.500000000      0.500000000    
   60.5000000      0.500000000      0.500000000    
   61.5000000      0.500000000      0.500000000    
   62.5000000      0.500000000      0.500000000    
   63.5000000      0.500000000      0.500000000    
   64.5000000      0.500000000      0.500000000    
   65.5000000      0.500000000      0.500000000    
   66.5000000      0.500000000      0.500000000    
   67.5000000      0.500000000      0.500000000    
   68.5000000      0.500000000      0.500000000    
   69.5000000      0.500000000      0.500000000    
   70.5000000      0.500000000      0.500000000    
   71.5000000      0.500000000      0.500000000    
   72.5000000      0.500000000      0.500000000    
   73.5000000      0.500000000      0.500000000    
   74.5000000      0.500000000      0.500000000    
   75.5000000      0.500000000      0.500000000    
   76.5000000      0.500000000      0.500000000    
   77.5000000      0.500000000      0.500000000    
   78.5000000      0.500000000      0.500000000    
   79.5000000      0.500000000      0.500000000    
   80.5000000      0.500000000      0.500000000    
   81.5000000      0.500000000      0.500000000    
   82.5000000      0.500000000      0.500000000    
   83.5000000      0.500000000      0.500000000    
   84.5000000      0.500000000      0.500000000    
   85.5000000      0.500000000      0.500000000    
   86.5000000      0.500000000      0.500000000    
   87.5000000      0.500000000      0.500000000    
   88.5000000      0.500000000      0.500000000    
   89.5000000      0.500000000      0.500000000    
   90.5000000      0.500000000      0.500000000    
   91.5000000      0.500000000      0.500000000    
   92.5000000      0.500000000      0.500000000    
   93.5000000      0.500000000      0.500000000    
   94.5000000      0.500000000      0.500000000    
   95.5000000      0.500000000      0.500000000    
  0.500000000       1.50000000      0.500000000    
   1.50000000       1.50000000      0.500000000    
   2.50000000       1.50000000      0.500000000    
   3.50000000       1.50000000      0.500000000    
   4.50000000       1.50000000      0.500000000    
   5.50000000       1.50000000      0.500000000    
   6.50000000       1.50000000      0.500000000    
   7.50000000       1.50000000      0.500000000    
   8.50000000       1.50000000      0.500000000    
   9.50000000       1.50000000      0.500000000    
   10.5000000       1.50000000      0.500000000    
   11.5000000       1.50000000      0.500000000    
   12.5000000       1.50000000      0.500000000    
   13.5000000       1.50000000      0.500000000    
   14.5000000       1.50000000      0.500000000    
   15.5000000       1.50000000      0.500000000    
   16.5000000       1.50000000      0.500000000    
   17.5000000       1.50000000      0.500000000    
   18.5000000       1.50000000      0.500000000    
   19.5000000       1.50000000      0.500000000    
   20.5000000       1.50000000      0.500000000    
   21.5000000       1.50000000      0.500000000    
   22.5000000       1.50000000      0.500000000    
   23.5000000       1.50000000      0.500000000    
   24.5000000       1.50000000      0.500000000    
   25.5000000       1.50000000      0.500000000    
   26.5000000       1.50000000      0.500000000    
   27.5000000       1.50000000      0.500000000    
   28.5000000       1.50000000      0.500000000    
   29.5000000       1.50000000      0.500000000    
   30.5000000       1.50000000      0.500000000    
   31.5000000       1.50000000      0.500000000    
   32.5000000       1.50000000      0.500000000    
   33.5000000       1.50000000      0.500000000    
   34.5000000       1.50000000      0.500000000    
   35.5000000       1.50000000      0.500000000    
   36.5000000       1.50000000      0.500000000    
   37.5000000       1.50000000      0.500000000    
   38.5000000       1.50000000      0.500000000    
   39.5000000       1.50000000      0.500000000    
   40.5000000       1.50000000      0.500000000    
   41.5000000       1.50000000      0.500000000    
   42.5000000       1.50000000      0.500000000    
   43.5000000       1.50000000      0.500000000    
   44.5000000       1.50000000      0.500000000    
   45.5000000       1.50000000      0.500000000    
   46.5000000       1.50000000      0.500000000    
   47.5000000       1.50000000      0.500000000    
   48.5000000       1.50000000      0.500000000    
   49.5000000       1.50000000      0.500000000    
   50.5000000       1.50000000      0.500000000    
   51.5000000       1.50000000      0.500000000    
   52.5000000       1.50000000      0.500000000    
   53.5000000       1.50000000      0.500000000    
   54.5000000       1.50000000      0.500000000    
   55.5000000       1.50000000      0.500000000    
   56.5000000       1.50000000      0.500000000    
   57.5000000       1.50000000      0.500000000    
   58.5000000       1.50000000      0.500000000    
   59.5000000       1.50000000      0.500000000    
   60.5000000       1.50000000      0.500000000    
   61.5000000       1.50000000      0.500000000    
   62.5000000       1.50000000      0.500000000    
   63.5000000       1.50000000      0.500000000    
   64.5000000       1.50000000      0.500000000    
   65.5000000       1.50000000      0.500000000    
   66.5000000       1.50000000      0.500000000    
   67.5000000       1.50000000      0.500000000    
   68.5000000       1.50000000      0.500000000    
   69.5000000       1.50000000      0.500000000    
   70.5000000       1.50000000      0.500000000    
   71.5000000       1.50000000      0.500000000    
   72.5000000       1.50000000      0.500000000    
   73.5000000       1.50000000      0.500000000    
   74.5000000       1.50000000      0.500000000    
   75.5000000       1.50000000      0.500000000    
   76.5000000       1.50000000      0.500000000    
   77.5000000       1.50000000      0.500000000    
   78.5000000       1.50000000      0.500000000    
   79.5000000       1.50000000      0.500000000    
   80.5000000       1.50000000      0.500000000    
   81.5000000       1.50000000      0.500000000    
   82.5000000       1.50000000      0.500000000    
   83.5000000       1.50000000      0.500000000    
   84.5000000       1.50000000      0.500000000    
   85.5000000       1.50000000      0.500000000    
   86.5000000       1.50000000      0.500000000    
   87.5000000       1.50000000      0.500000000    
   88.5000000       1.50000000      0.500000000    
   89.5000000       1.50000000      0.500000000    
   90.5000000       1.50000000      0.500000000    
   91.5000000       1.50000000      0.500000000    
   92.5000000       1.50000000      0.500000000    
[...]
 POINT_DATA        9216
 SCALARS biaxial_field float
 LOOKUP_TABLE default
   0.00000000    
   0.00000000    
   0.00000000    
   0.00000000    
   0.00000000    
   0.00000000    
   0.00000000    
   0.00000000    
   0.00000000    
   0.00000000    
   0.00000000    
   0.00000000    
   0.00000000    
   0.00000000    
   0.00000000    
   0.00000000    
   0.00000000    
   0.00000000    
   0.00000000    
   0.00000000    
   0.00000000    
   0.00000000    
   0.00000000    
   0.00000000    
   0.00000000    
   0.00000000    
   0.00000000    
   0.00000000    
   0.00000000    
   0.00000000    
   0.00000000    
   0.00000000    
   0.00000000    
   0.00000000    
   0.00000000    
   0.00000000    
   0.00000000    
   0.00000000    
   0.00000000    
   0.00000000    
   0.00000000    
   0.00000000    
   0.00000000    
   0.00000000    
   0.00000000    
   0.00000000    
   0.00000000    
   0.00000000    
   0.00000000    
   0.00000000    
   0.00000000    
   0.00000000    
   0.00000000    
   0.00000000    
   0.00000000    
   0.00000000    
   0.00000000    
   0.00000000    
   0.00000000    
   0.00000000    
   0.00000000    
   0.00000000    
   0.00000000    
   0.00000000    
   0.00000000    
   0.00000000    
   0.00000000    
   0.00000000    
   0.00000000    
   0.00000000    
   0.00000000    
   0.00000000    
   0.00000000    
   0.00000000    
   0.00000000    
   0.00000000    
   0.00000000    
   0.00000000    
   0.00000000    
   0.00000000    
   0.00000000    
   0.00000000    
   0.00000000    
   0.00000000    
   0.00000000    
   0.00000000    
   0.00000000    
   0.00000000    
   0.00000000    
   0.00000000    
   0.00000000    
   0.00000000    
   0.00000000    
   0.00000000    
   0.00000000    
   0.00000000    
   0.00000000    
   0.00000000    
   0.00000000    
   0.00000000    
   0.00000000    
   0.00000000    
   0.00000000    
   0.00000000    
   0.00000000    
   0.00000000    
   0.00000000    
   0.00000000    
   0.00000000    
   0.00000000    
   0.00000000    
   0.00000000    
   0.00000000    
   0.00000000    
   0.00000000    
   0.00000000    
   0.00000000    
   0.00000000    
   0.00000000    
   0.00000000    
   0.00000000    
   0.00000000    
   0.00000000    
   0.00000000    
   0.00000000    
   0.00000000    
   0.00000000    
   0.00000000    
   0.00000000    
   0.00000000    
   0.00000000    
   0.00000000    
   0.00000000    
   0.00000000    
   0.00000000    
   0.00000000    
   0.00000000    
   0.00000000    
   0.00000000    
   0.00000000    
   0.00000000    
   0.00000000    
   0.00000000    
  0.468878865    
  0.467077136    
   0.00000000    
   0.00000000    
   0.00000000    
   0.00000000    
   0.00000000    
   0.00000000    
   0.00000000    
   0.00000000    
   0.00000000    
   0.00000000    
   0.00000000    
   0.00000000    
   0.00000000    
   0.00000000    
   0.00000000    
   0.00000000    
   0.00000000    
   0.00000000    
   0.00000000    
   0.00000000    
   0.00000000    
   0.00000000    
   0.00000000    
   0.00000000    
   0.00000000    
   0.00000000    
   0.00000000    
   0.00000000    
   0.00000000    
   0.00000000    
   0.00000000    
   0.00000000    
   0.00000000    
   0.00000000    
   0.00000000    
   0.00000000    
   0.00000000    
   0.00000000    
   0.00000000    
   0.00000000    
   0.00000000    
   0.00000000    
   0.00000000    
   0.00000000    
   0.00000000    
   0.00000000    
   0.00000000    
   0.00000000    
   0.00000000    
   0.00000000    
   0.00000000    
   0.00000000    
   0.00000000    
   0.00000000    
   0.00000000    
   0.00000000    
   0.00000000    
   0.00000000    
   0.00000000    
   0.00000000    
   0.00000000    
   0.00000000    
   0.00000000    
   0.00000000    
   0.00000000    
   0.00000000    
   0.00000000    
   0.00000000    
   0.00000000    
   0.00000000    
   0.00000000    
   0.00000000    
   0.00000000    
   0.00000000    
   0.00000000    
   0.00000000    
   0.00000000    
   0.00000000    
   0.00000000    
   0.00000000    
   0.00000000    
   0.00000000    
   0.00000000    
   0.00000000    
   0.00000000    
   0.00000000    
   0.00000000    
   0.00000000    
   0.00000000    
   0.00000000    
   0.00000000    
   0.00000000    
   0.00000000    
  0.168249324    
  0.360143691    
  0.359881431    
  0.165435642    
   0.00000000    
   0.00000000    
   0.00000000    
   0.00000000    
   0.00000000    
   0.00000000    
   0.00000000    
   0.00000000    
   0.00000000    
   0.00000000    
   0.00000000    
   0.00000000    
   0.00000000    
   0.00000000    
   0.00000000    
   0.00000000    
   0.00000000    
   0.00000000    
   0.00000000    
   0.00000000    
   0.00000000    
   0.00000000    
   0.00000000    
   0.00000000    
   0.00000000    
   0.00000000    
   0.00000000    
   0.00000000    
   0.00000000    
   0.00000000    
   0.00000000    
   0.00000000    
   0.00000000    
   0.00000000    
   0.00000000    
   0.00000000    
   0.00000000    
   0.00000000    
   0.00000000    
   0.00000000    
   0.00000000    
   0.00000000    
   0.00000000    
   0.00000000    
   0.00000000    
   0.00000000    
   0.00000000    
   0.00000000    
   0.00000000    
   0.00000000    
   0.00000000    
   0.00000000    
   0.00000000    
   0.00000000    
   0.00000000    
   0.00000000    
   0.00000000    
   0.00000000    
   0.00000000    
   0.00000000    
   0.00000000    
   0.00000000    
   0.00000000    
   0.00000000    
   0.00000000    
   0.00000000    
   0.00000000    
   0.00000000    
   0.00000000    
   0.00000000    
   0.00000000    
   0.00000000    
   0.00000000    
   0.00000000    
   0.00000000    
   0.00000000    
   0.00000000    
   0.00000000    
   0.00000000    
   0.00000000    
   0.00000000    
   0.00000000    
   0.00000000    
   0.00000000    
   0.00000000    
   0.00000000    
   0.00000000    
   0.00000000    
   0.00000000    
   0.00000000    
   0.00000000    
  0.139755115    
  0.195700571    
  0.243403807    
  0.249475971    
  0.198294535    
  0.141627610    
   0.00000000    
   0.00000000    
   0.00000000    
   0.00000000    
   0.00000000    
   0.00000000    
   0.00000000    
   0.00000000    
   0.00000000    
   0.00000000    
   0.00000000    
   0.00000000    
   0.00000000    
   0.00000000    
   0.00000000    
   0.00000000    
   0.00000000    
   0.00000000    
   0.00000000    
   0.00000000    
   0.00000000    
   0.00000000    
   0.00000000    
   0.00000000    
   0.00000000    
   0.00000000    
   0.00000000    
   0.00000000    
   0.00000000    
   0.00000000    
   0.00000000    
   0.00000000    
   0.00000000    
   0.00000000    
   0.00000000    
   0.00000000    
   0.00000000    
   0.00000000    
   0.00000000    
   0.00000000    
   0.00000000    
   0.00000000    
   0.00000000    
   0.00000000    
   0.00000000    
   0.00000000    
   0.00000000    
   0.00000000    
   0.00000000    
   0.00000000    
   0.00000000    
   0.00000000    
   0.00000000    
   0.00000000    
   0.00000000    
   0.00000000    
   0.00000000    
   0.00000000    
   0.00000000    
   0.00000000    
   0.00000000    
   0.00000000    
   0.00000000    
   0.00000000    
   0.00000000    
   0.00000000    
   0.00000000    
   0.00000000    
   0.00000000    
   0.00000000    
   0.00000000    
   0.00000000    
   0.00000000    
   0.00000000    
   0.00000000    
   0.00000000    
   0.00000000    
   0.00000000    
   0.00000000    
   0.00000000    
   0.00000000    
   0.00000000    
   0.00000000    
   0.00000000    
   0.00000000    
   0.00000000    
   0.00000000    
   0.00000000    
   0.00000000    
  0.136697590    
  0.167345718    
  0.195215300    
  0.204293311    
  0.204353631    
  0.195703611    
  0.173763946    
  0.133930385    
   0.00000000    
   0.00000000    
   0.00000000    
   0.00000000    
   0.00000000    
   0.00000000    
   0.00000000    
   0.00000000    
   0.00000000    
   0.00000000    
   0.00000000    
   0.00000000    
   0.00000000    
   0.00000000    
   0.00000000    
   0.00000000    
   0.00000000    
   0.00000000    
   0.00000000    
   0.00000000    
   0.00000000    
   0.00000000    
   0.00000000    
   0.00000000    
   0.00000000    
   0.00000000    
   0.00000000    
   0.00000000    
   0.00000000    
   0.00000000    
   0.00000000    
   0.00000000    
   0.00000000    
   0.00000000    
   0.00000000    
   0.00000000    
   0.00000000    
   0.00000000    
   0.00000000    
   0.00000000    
   0.00000000    
   0.00000000    
   0.00000000    
   0.00000000    
   0.00000000    
   0.00000000    
   0.00000000    
   0.00000000    
   0.00000000    
   0.00000000    
   0.00000000    
   0.00000000    
   0.00000000    
   0.00000000    
   0.00000000    
   0.00000000    
   0.00000000    
   0.00000000    
   0.00000000    
   0.00000000    
   0.00000000    
   0.00000000    
   0.00000000    
   0.00000000    
   0.00000000    
   0.00000000    
   0.00000000    
   0.00000000    
   0.00000000    
   0.00000000    
   0.00000000    
   0.00000000    
   0.00000000    
   0.00000000    
   0.00000000    
   0.00000000    
   0.00000000    
   0.00000000    
   0.00000000    
   0.00000000    
   0.00000000    
   0.00000000    
   0.00000000    
   0.00000000    
   0.00000000    
   0.00000000    
   0.00000000    
  0.125802383    
  0.159602493    
  0.178150564    
  0.177124172    
  0.184521973    
  0.189448968    
  0.181719646    
  0.177746773    
  0.161885500    
  0.129426792    
   0.00000000    
   0.00000000    
   0.00000000    
   0.00000000    
   0.00000000    
   0.00000000    
   0.00000000    
   0.00000000    
   0.00000000    
   0.00000000    
   0.00000000    
   0.00000000    
   0.00000000    
   0.00000000    
   0.00000000    
   0.00000000    
   0.00000000    
   0.00000000    
   0.00000000    
   0.00000000    
   0.00000000    
   0.00000000    
   0.00000000    
   0.00000000    
   0.00000000    
   0.00000000    
   0.00000000    
   0.00000000    
   0.00000000    
   0.00000000    
   0.00000000    
   0.00000000    
   0.00000000    
   0.00000000    
   0.00000000    
   0.00000000    
   0.00000000    
   0.00000000    
   0.00000000    
   0.00000000    
   0.00000000    
   0.00000000    
   0.00000000    
   0.00000000    
   0.00000000    
   0.00000000    
   0.00000000    
   0.00000000    
   0.00000000    
   0.00000000    
   0.00000000    
   0.00000000    
   0.00000000    
   0.00000000    
   0.00000000    
   0.00000000    
   0.00000000    
   0.00000000    
   0.00000000    
   0.00000000    
   0.00000000    
   0.00000000    
   0.00000000    
   0.00000000    
   0.00000000    
   0.00000000    
   0.00000000    
   0.00000000    
   0.00000000    
   0.00000000    
   0.00000000    
   0.00000000    
   0.00000000    
   0.00000000    
   0.00000000    
   0.00000000    
   0.00000000    
   0.00000000    
   0.00000000    
   0.00000000    
   0.00000000    
   0.00000000    
   0.00000000    
   0.00000000    
   0.00000000    
  0.123863839    
  0.155062154    
  0.168226942    
  0.170782343    
  0.172955051    
  0.178215459    
  0.178988427    
  0.174583584    
  0.173905194    
  0.174709052    
  0.156142443    
  0.131244674    
   0.00000000    
   0.00000000    
   0.00000000    
   0.00000000    
   0.00000000    
   0.00000000    
   0.00000000    
   0.00000000    
   0.00000000    
   0.00000000    
   0.00000000    
   0.00000000    
   0.00000000    
   0.00000000    
   0.00000000    
   0.00000000    
   0.00000000    
   0.00000000    
   0.00000000    
   0.00000000    
   0.00000000    
   0.00000000    
   0.00000000    
   0.00000000    
   0.00000000    
   0.00000000    
   0.00000000    
   0.00000000    
   0.00000000    
   0.00000000    
   0.00000000    
   0.00000000    
   0.00000000    
   0.00000000    
   0.00000000    
   0.00000000    
   0.00000000    
   0.00000000    
   0.00000000    
   0.00000000    
   0.00000000    
   0.00000000    
   0.00000000    
   0.00000000    
   0.00000000    
   0.00000000    
   0.00000000    
   0.00000000    
   0.00000000    
   0.00000000    
   0.00000000    
   0.00000000    
   0.00000000    
   0.00000000    
   0.00000000    
   0.00000000    
   0.00000000    
   0.00000000    
   0.00000000    
   0.00000000    
   0.00000000    
   0.00000000    
   0.00000000    
   0.00000000    
   0.00000000    
   0.00000000    
   0.00000000    
   0.00000000    
   0.00000000    
   0.00000000    
   0.00000000    
   0.00000000    
   0.00000000    
   0.00000000    
   0.00000000    
   0.00000000    
   0.00000000    
   0.00000000    
   0.00000000    
   0.00000000    
   0.00000000    
   0.00000000    
   0.00000000    
  0.126132384    
  0.150357753    
  0.164221212    
  0.172629163    
  0.170201957    
  0.171605468    
  0.174106866    
  0.171468496    
  0.175624326    
  0.172092155    
  0.170242414    
  0.169155493    
  0.155207112    
  0.127695069    
   0.00000000    
   0.00000000    
   0.00000000    
   0.00000000    
   0.00000000    
   0.00000000    
   0.00000000    
   0.00000000    
   0.00000000    
   0.00000000    
   0.00000000    
   0.00000000    
   0.00000000    
   0.00000000    
   0.00000000    
   0.00000000    
   0.00000000    
   0.00000000    
   0.00000000    
   0.00000000    
   0.00000000    
   0.00000000    
   0.00000000    
   0.00000000    
   0.00000000    
   0.00000000    
   0.00000000    
   0.00000000    
   0.00000000    
   0.00000000    
   0.00000000    
   0.00000000    
   0.00000000    
   0.00000000    
   0.00000000    
   0.00000000    
   0.00000000    
   0.00000000    
   0.00000000    
   0.00000000    
   0.00000000    
   0.00000000    
   0.00000000    
   0.00000000    
   0.00000000    
   0.00000000    
   0.00000000    
   0.00000000    
   0.00000000    
   0.00000000    
   0.00000000    
   0.00000000    
   0.00000000    
   0.00000000    
   0.00000000    
   0.00000000    
   0.00000000    
   0.00000000    
   0.00000000    
   0.00000000    
   0.00000000    
   0.00000000    
   0.00000000    
   0.00000000    
   0.00000000    
   0.00000000    
   0.00000000    
   0.00000000    
   0.00000000    
   0.00000000    
   0.00000000    
   0.00000000    
   0.00000000    
   0.00000000    
   0.00000000    
   0.00000000    
   0.00000000    
   0.00000000    
   0.00000000    
   0.00000000    
   0.00000000    
  0.126456559    
  0.150054321    
  0.165286273    
  0.166333154    
  0.167412832    
  0.167874664    
  0.166657671    
  0.170834526    
  0.168222860    
  0.173291236    
  0.172045052    
  0.168976784    
  0.169119880    
  0.163981065    
  0.152861610    
  0.129550502    
   0.00000000    
   0.00000000    
   0.00000000    
   0.00000000    
   0.00000000    
   0.00000000    
   0.00000000    
   0.00000000    
   0.00000000    
   0.00000000    
   0.00000000    
   0.00000000    
   0.00000000    
   0.00000000    
   0.00000000    
   0.00000000    
   0.00000000    
   0.00000000    
   0.00000000    
   0.00000000    
   0.00000000    
   0.00000000    
   0.00000000    
   0.00000000    
   0.00000000    
   0.00000000    
   0.00000000    
   0.00000000    
   0.00000000    
   0.00000000    
   0.00000000    
   0.00000000    
   0.00000000    
   0.00000000    
   0.00000000    
   0.00000000    
   0.00000000    
   0.00000000    
   0.00000000    
   0.00000000    
   0.00000000    
   0.00000000    
   0.00000000    
   0.00000000    
   0.00000000    
   0.00000000    
   0.00000000    
   0.00000000    
   0.00000000    
   0.00000000    
   0.00000000    
   0.00000000    
   0.00000000    
   0.00000000    
   0.00000000    
   0.00000000    
   0.00000000    
   0.00000000    
   0.00000000    
   0.00000000    
   0.00000000    
   0.00000000    
   0.00000000    
   0.00000000    
   0.00000000    
   0.00000000    
   0.00000000    
   0.00000000    
   0.00000000    
   0.00000000    
   0.00000000    
   0.00000000    
   0.00000000    
   0.00000000    
   0.00000000    
   0.00000000    
   0.00000000    
   0.00000000    
   0.00000000    
  0.126391008    
  0.151150301    
  0.163988069    
  0.161891535    
  0.163813755    
  0.164517090    
  0.166578814    
  0.170654431    
  0.168757737    
  0.166329801    
  0.168777585    
  0.166711003    
  0.166190714    
  0.165157765    
  0.163279265    
  0.164402395    
  0.146194816    
  0.127042979    
   0.00000000    
   0.00000000    
   0.00000000    
   0.00000000    
   0.00000000    
   0.00000000    
   0.00000000    
   0.00000000    
   0.00000000    
   0.00000000    
   0.00000000    
   0.00000000    
   0.00000000    
   0.00000000    
   0.00000000    
   0.00000000    
   0.00000000    
   0.00000000    
   0.00000000    
   0.00000000    
   0.00000000    
   0.00000000    
   0.00000000    
   0.00000000    
   0.00000000    
   0.00000000    
   0.00000000    
   0.00000000    
   0.00000000    
   0.00000000    
   0.00000000    
   0.00000000    
   0.00000000    
   0.00000000    
   0.00000000    
   0.00000000    
   0.00000000    
   0.00000000    
   0.00000000    
   0.00000000    
   0.00000000    
   0.00000000    
   0.00000000    
   0.00000000    
   0.00000000    
   0.00000000    
   0.00000000    
   0.00000000    
   0.00000000    
   0.00000000    
   0.00000000    
   0.00000000    
   0.00000000    
   0.00000000    
   0.00000000    
   0.00000000    
   0.00000000    
   0.00000000    
   0.00000000    
   0.00000000    
   0.00000000    
   0.00000000    
   0.00000000    
   0.00000000    
   0.00000000    
   0.00000000    
   0.00000000    
   0.00000000    
   0.00000000    
   0.00000000    
   0.00000000    
   0.00000000    
   0.00000000    
   0.00000000    
   0.00000000    
   0.00000000    
   0.00000000    
  0.127809659    
  0.150903329    
  0.164380476    
  0.162487060    
  0.162633345    
  0.162091851    
  0.167305753    
  0.166207805    
  0.168870151    
  0.167948812    
  0.168091401    
  0.167228043    
  0.165653795    
  0.166445181    
  0.166120321    
  0.168268323    
  0.162267104    
  0.163597271    
  0.147869989    
  0.126365900    
   0.00000000    
   0.00000000    
   0.00000000    
   0.00000000    
   0.00000000    
   0.00000000    
   0.00000000    
   0.00000000    
   0.00000000    
   0.00000000    
   0.00000000    
   0.00000000    
   0.00000000    
   0.00000000    
   0.00000000    
   0.00000000    
   0.00000000    
   0.00000000    
   0.00000000    
   0.00000000    
   0.00000000    
   0.00000000    
   0.00000000    
   0.00000000    
   0.00000000    
   0.00000000    
   0.00000000    
   0.00000000    
   0.00000000    
   0.00000000    
   0.00000000    
   0.00000000    
   0.00000000    
   0.00000000    
   0.00000000    
   0.00000000    
   0.00000000    
   0.00000000    
   0.00000000    
   0.00000000    
   0.00000000    
   0.00000000    
   0.00000000    
   0.00000000    
   0.00000000    
   0.00000000    
   0.00000000    
   0.00000000    
   0.00000000    
   0.00000000    
   0.00000000    
   0.00000000    
   0.00000000    
   0.00000000    
   0.00000000    
   0.00000000    
   0.00000000    
   0.00000000    
   0.00000000    
   0.00000000    
   0.00000000    
   0.00000000    
   0.00000000    
   0.00000000    
   0.00000000    
   0.00000000    
   0.00000000    
   0.00000000    
   0.00000000    
   0.00000000    
   0.00000000    
   0.00000000    
   0.00000000    
   0.00000000    
   0.00000000    
  0.121989347    
  0.150090083    
  0.163744405    
  0.163193077    
  0.163151711    
  0.158433005    
  0.164066508    
  0.164986506    
  0.161427826    
  0.165424511    
  0.162911654    
  0.164428771    
  0.167508543    